/*--------------------------------*- C++ -*----------------------------------*\
  =========                 |
  \\      /  F ield         | OpenFOAM: The Open Source CFD Toolbox
   \\    /   O peration     | Website:  https://openfoam.org
    \\  /    A nd           | Version:  9
     \\/     M anipulation  |
\*---------------------------------------------------------------------------*/
FoamFile
{
    format      ascii;
    class       polyBoundaryMesh;
    location    "constant/polyMesh";
    object      boundary;
}
// * * * * * * * * * * * * * * * * * * * * * * * * * * * * * * * * * * * * * //

5
(
    inletLarge
    {
        type            patch;
        nFaces          40;
        startFace       11443;
    }
    inletSmall
    {
        type            patch;
        nFaces          17;
        startFace       11483;
    }
    wall
    {
        type            wall;
        inGroups        List<word> 1(wall);
        nFaces          297;
        startFace       11500;
    }
    frontAndback
    {
        type            empty;
        inGroups        List<word> 1(wall);
        nFaces          11640;
        startFace       11797;
    }
    outlet
    {
        type            patch;
        nFaces          40;
        startFace       23437;
    }
)

// ************************************************************************* //
